<VTKFile type="ImageData">
<ImageData WholeExtent="0 80 0 60 0 0" Origin="0.1 0.1 0" Spacing="0.01 0.01 0">
<Piece Extent="0 80 0 60 0 0">
<PointData>
<DataArray Name="T" NumberOfComponents="1" format="ascii" type="Float64">
0 0.000202388 0.000404776 0.000607165 0.000809553 0.00101194 0.00121433 0.00141672 0.00161911 0.00182149 0.00202388 0.00222627 0.00242866 0.00263105 0.00283343 0.00303582 0.00323821 0.0034406 0.00364299 0.00384538 0.00404776 0.00425015 0.00445254 0.00465493 0.00485732 0.0050597 0.00526209 0.00546448 0.00566687 0.00586926 0.00607165 0.00627403 0.00647642 0.00667881 0.0068812 0.00708359 0.00728597 0.00748836 0.00769075 0.00789314 0.00809553 0.00829792 0.0085003 0.00870269 0.00890508 0.00910747 0.00930986 0.00951224 0.00971463 0.00991702 0.0101194 0.0103218 0.0105242 0.0107266 0.010929 0.0111313 0.0113337 0.0115361 0.0117385 0.0119409 0.0121433 0.0123457 0.0125481 0.0127505 0.0129528 0.0131552 0.0133576 0.01356 0.0137624 0.0139648 0.0141672 0.0143696 0.0145719 0.0147743 0.0149767 0.0151791 0.0153815 0.0155839 0.0157863 0.0159887 0.0161911 0.0163934 0.0163911 0.0163889 0.0163871 0.0163858 0.0163854 0.0163859 0.0163875 0.0163905 0.016395 0.0164011 0.0164091 0.0164191 0.0164312 0.0164457 0.0164626 0.0164821 0.0165044 0.0165295 0.0165577 0.0165889 0.0166233 0.0166611 0.0167022 0.0167469 0.0167951 0.0168469 0.0169025 0.0169618 0.017025 0.0170921 0.0171631 0.017238 0.0173169 0.0173999 0.0174869 0.0175779 0.017673 0.0177722 0.0178754 0.0179827 0.018094 0.0182094 0.0183287 0.018452 0.0185791 0.0187101 0.0188447 0.018983 0.0191248 0.0192698 0.0194179 0.0195686 0.0197214 0.0198757 0.0200301 0.0201826 0.0203293 0.0204616 0.0205583 0.0205583 0.0212828 0.0219104 0.0225021 0.0230788 0.0236488 0.024216 0.0247821 0.0253483 0.025915 0.0264826 0.0270513 0.027621 0.0281918 0.0287637 0.0293365 0.0299102 0.0304846 0.0310597 0.0316352 0.0322109 0.0327869 0.0325795 0.0323726 0.0321664 0.0319614 0.0317579 0.0315563 0.031357 0.0311604 0.0309667 0.0307765 0.0305899 0.0304073 0.030229 0.0300554 0.0298868 0.0297233 0.0295653 0.0294131 0.0292669 0.0291268 0.0289932 0.0288662 0.028746 0.0286328 0.0285268 0.0284281 0.0283368 0.028253 0.0281769 0.0281086 0.0280481 0.0279956 0.027951 0.0279145 0.0278861 0.0278658 0.0278536 0.0278496 0.0278537 0.0278659 0.0278862 0.0279145 0.0279508 0.027995 0.0280469 0.0281065 0.0281736 0.028248 0.0283293 0.0284172 0.0285113 0.0286108 0.0287149 0.0288222 0.0289307 0.0290373 0.0291368 0.0292202 0.0292725 0.0292725 0.030317 0.0313088 0.0322687 0.0332114 0.0341453 0.0350754 0.0360043 0.0369336 0.0378644 0.038797 0.0397319 0.040669 0.0416083 0.0425497 0.0434931 0.0444382 0.0453848 0.0463326 0.0472813 0.0482307 0.0491803 0.0487676 0.0483555 0.0479446 0.0475354 0.0471285 0.0467245 0.0463239 0.0459273 0.0455352 0.0451481 0.0447666 0.0443912 0.0440222 0.0436603 0.0433057 0.042959 0.0426205 0.0422907 0.0419698 0.0416583 0.0413564 0.0410645 0.0407828 0.0405117 0.0402512 0.0400018 0.0397634 0.0395365 0.039321 0.0391173 0.0389253 0.0387452 0.0385771 0.0384211 0.0382772 0.0381455 0.0380261 0.0379188 0.0378238 0.0377409 0.0376702 0.0376116 0.037565 0.0375302 0.0375071 0.0374955 0.0374953 0.0375059 0.0375272 0.0375585 0.0375992 0.0376485 0.0377051 0.0377675 0.0378333 0.0378992 0.0379603 0.0380099 0.0380389 0.0380389 0.0394038 0.040739 0.0420525 0.0433526 0.0446457 0.0459359 0.0472259 0.0485176 0.0498118 0.0511093 0.0524102 0.0537147 0.0550226 0.0563338 0.0576479 0.0589647 0.0602838 0.0616046 0.0629269 0.0642501 0.0655738 0.0649551 0.0643373 0.063721 0.063107 0.0624962 0.0618892 0.0612867 0.0606896 0.0600986 0.0595143 0.0589374 0.0583686 0.0578085 0.0572577 0.0567168 0.0561865 0.0556671 0.0551593 0.0546635 0.0541802 0.0537097 0.0532526 0.0528092 0.0523797 0.0519647 0.0515643 0.0511788 0.0508085 0.0504535 0.0501141 0.0497905 0.0494828 0.0491911 0.0489155 0.0486562 0.0484131 0.0481863 0.0479759 0.0477817 0.0476039 0.0474422 0.0472967 0.0471673 0.0470537 0.0469558 0.0468733 0.0468059 0.0467533 0.046715 0.0466904 0.0466786 0.0466788 0.0466896 0.0467094 0.0467357 0.0467658 0.0467955 0.0468201 0.0468344 0.0468344 0.0485202 0.0501909 0.0518497 0.053501 0.0551489 0.0567965 0.058446 0.0600989 0.0617561 0.0634181 0.065085 0.066757 0.0684337 0.0701149 0.0718001 0.073489 0.0751809 0.0768752 0.0785715 0.080269 0.0819672 0.0811419 0.0803175 0.0794951 0.0786756 0.07786 0.0770493 0.0762443 0.075446 0.0746553 0.073873 0.0731001 0.0723372 0.0715854 0.0708452 0.0701175 0.0694029 0.0687022 0.0680159 0.0673447 0.0666891 0.0660497 0.065427 0.0648215 0.0642335 0.0636635 0.0631119 0.062579 0.062065 0.0615704 0.0610953 0.0606399 0.0602044 0.059789 0.0593938 0.0590189 0.0586643 0.0583302 0.0580166 0.0577234 0.0574506 0.0571981 0.0569659 0.0567537 0.0565615 0.056389 0.0562359 0.0561019 0.0559865 0.0558892 0.0558093 0.0557461 0.0556985 0.0556652 0.0556446 0.0556346 0.0556326 0.0556358 0.0556407 0.0556442 0.0556442 0.0576517 0.0596548 0.0616544 0.0636529 0.0656525 0.0676552 0.0696627 0.0716759 0.0736955 0.0757218 0.0777549 0.0797945 0.0818403 0.0838919 0.0859488 0.0880102 0.0900755 0.092144 0.0942149 0.0962873 0.0983607 0.0973276 0.0962958 0.0952663 0.0942403 0.0932191 0.0922036 0.0911951 0.0901947 0.0892035 0.0882224 0.0872526 0.086295 0.0853506 0.0844203 0.083505 0.0826055 0.0817227 0.0808574 0.0800102 0.0791819 0.078373 0.0775843 0.0768162 0.0760692 0.075344 0.0746408 0.0739602 0.0733024 0.0726678 0.0720567 0.0714693 0.0709059 0.0703666 0.0698517 0.0693612 0.0688951 0.0684537 0.0680369 0.0676446 0.0672769 0.0669337 0.0666149 0.0663203 0.0660497 0.0658028 0.0655794 0.0653792 0.0652015 0.0650459 0.0649117 0.064798 0.0647039 0.0646281 0.0645692 0.0645253 0.0644944 0.0644743 0.0644627 0.0644574 0.0644574 0.0667877 0.069122 0.0714603 0.0738036 0.0761529 0.0785093 0.0808736 0.0832465 0.0856283 0.0880189 0.0904182 0.0928258 0.0952412 0.0976638 0.100093 0.102527 0.104967 0.10741 0.109857 0.112305 0.114754 0.113512 0.112272 0.111034 0.1098 0.108572 0.107351 0.106138 0.104934 0.103741 0.102561 0.101393 0.10024 0.0991016 0.0979803 0.0968766 0.0957915 0.0947259 0.0936808 0.0926569 0.0916551 0.0906762 0.0897208 0.0887897 0.0878833 0.0870023 0.0861472 0.0853185 0.0845165 0.0837417 0.0829943 0.0822748 0.0815833 0.08092 0.0802852 0.0796789 0.0791014 0.0785526 0.0780326 0.0775413 0.0770788 0.076645 0.0762397 0.0758628 0.075514 0.0751932 0.0748999 0.0746338 0.0743945 0.0741812 0.0739935 0.0738304 0.073691 0.0735742 0.0734787 0.073403 0.0733455 0.0733045 0.0732782 0.0732655 0.0732655 0.0759196 0.0785851 0.0812614 0.0839483 0.0866462 0.0893553 0.092076 0.0948083 0.0975521 0.100307 0.103073 0.105849 0.108635 0.111429 0.114231 0.11704 0.119855 0.122674 0.125496 0.128321 0.131148 0.129695 0.128245 0.126797 0.125355 0.123919 0.12249 0.121071 0.119663 0.118267 0.116886 0.115519 0.114169 0.112836 0.111523 0.11023 0.108958 0.107709 0.106483 0.105282 0.104106 0.102956 0.101833 0.100738 0.099672 0.0986348 0.0976273 0.09665 0.0957035 0.0947881 0.0939042 0.0930522 0.0922324 0.0914449 0.0906901 0.089968 0.0892789 0.0886227 0.0879995 0.0874093 0.0868521 0.0863277 0.0858361 0.0853771 0.0849505 0.084556 0.0841932 0.0838618 0.0835613 0.0832911 0.0830506 0.082839 0.0826555 0.082499 0.0823684 0.0822626 0.0821801 0.0821197 0.0820803 0.0820608 0.0820608 0.0850402 0.0880375 0.0910517 0.0940821 0.0971282 0.10019 0.103267 0.106359 0.109465 0.112585 0.115718 0.118863 0.12202 0.125187 0.128363 0.131547 0.134737 0.137934 0.141134 0.144337 0.147541 0.145877 0.144215 0.142556 0.140903 0.139257 0.13762 0.135994 0.13438 0.13278 0.131195 0.129628 0.12808 0.126552 0.125045 0.123561 0.122102 0.120668 0.11926 0.117881 0.11653 0.115208 0.113918 0.112659 0.111432 0.110238 0.109077 0.107951 0.106859 0.105803 0.104782 0.103797 0.102849 0.101937 0.101062 0.100224 0.0994234 0.0986598 0.0979334 0.0972443 0.0965924 0.0959777 0.0954 0.0948591 0.0943549 0.093887 0.0934551 0.0930589 0.0926978 0.0923713 0.0920788 0.0918196 0.0915929 0.0913979 0.0912335 0.0910988 0.0909926 0.0909141 0.0908623 0.0908366 0.0908366 0.0941429 0.0974731 0.100826 0.1042 0.107595 0.111009 0.114443 0.117894 0.121364 0.124849 0.12835 0.131866 0.135395 0.138935 0.142486 0.146047 0.149615 0.153189 0.156768 0.160351 0.163934 0.162057 0.160181 0.15831 0.156444 0.154587 0.152739 0.150904 0.149082 0.147276 0.145488 0.143719 0.141971 0.140246 0.138544 0.136869 0.13522 0.1336 0.13201 0.130451 0.128924 0.127431 0.125971 0.124547 0.123158 0.121807 0.120493 0.119217 0.11798 0.116782 0.115624 0.114506 0.113429 0.112393 0.111397 0.110443 0.109531 0.10866 0.10783 0.107042 0.106296 0.105591 0.104927 0.104305 0.103723 0.103182 0.102681 0.102221 0.1018 0.101417 0.101074 0.100768 0.100499 0.100266 0.100069 0.0999063 0.0997776 0.0996818 0.0996183 0.0995868 0.0995868 0.103222 0.106886 0.110579 0.114297 0.118041 0.12181 0.1256 0.129413 0.133246 0.137098 0.140968 0.144855 0.148757 0.152673 0.156601 0.160539 0.164486 0.16844 0.1724 0.176363 0.180328 0.178234 0.176143 0.174057 0.171977 0.169906 0.167846 0.1658 0.163769 0.161755 0.159761 0.157789 0.155839 0.153915 0.152018 0.150149 0.14831 0.146503 0.144729 0.14299 0.141286 0.139618 0.137989 0.136399 0.134848 0.133338 0.13187 0.130444 0.129061 0.127722 0.126426 0.125175 0.123968 0.122807 0.121691 0.120621 0.119597 0.118618 0.117685 0.116798 0.115957 0.115162 0.114413 0.113709 0.11305 0.112437 0.111868 0.111343 0.110863 0.110425 0.110031 0.109679 0.109368 0.109099 0.10887 0.10868 0.108529 0.108417 0.108343 0.108305 0.108305 0.112271 0.116271 0.120305 0.12437 0.128464 0.132587 0.136736 0.140911 0.145109 0.149329 0.15357 0.15783 0.162107 0.166399 0.170705 0.175023 0.179351 0.183686 0.188028 0.192374 0.196721 0.19441 0.192101 0.189797 0.187501 0.185214 0.18294 0.180681 0.178438 0.176215 0.174013 0.171835 0.169683 0.167558 0.165463 0.163399 0.161369 0.159373 0.157414 0.155492 0.15361 0.151768 0.149968 0.148211 0.146497 0.144829 0.143205 0.141629 0.140099 0.138617 0.137184 0.135799 0.134463 0.133176 0.13194 0.130753 0.129616 0.12853 0.127494 0.126509 0.125573 0.124688 0.123853 0.123068 0.122333 0.121647 0.12101 0.120422 0.119882 0.11939 0.118946 0.118548 0.118197 0.117891 0.117631 0.117415 0.117243 0.117115 0.117029 0.116987 0.116987 0.121285 0.125623 0.13 0.134412 0.138859 0.143338 0.147847 0.152385 0.15695 0.16154 0.166153 0.170787 0.17544 0.180111 0.184797 0.189497 0.194207 0.198926 0.203652 0.208382 0.213115 0.210583 0.208054 0.20553 0.203015 0.20051 0.198019 0.195544 0.193088 0.190653 0.188242 0.185856 0.183498 0.181171 0.178877 0.176616 0.174392 0.172207 0.17006 0.167956 0.165894 0.163876 0.161904 0.159979 0.158102 0.156273 0.154494 0.152766 0.151089 0.149464 0.147892 0.146373 0.144907 0.143496 0.142138 0.140835 0.139586 0.138392 0.137253 0.136169 0.135139 0.134164 0.133244 0.132378 0.131566 0.130808 0.130103 0.129452 0.128854 0.128308 0.127814 0.127371 0.12698 0.126639 0.126348 0.126106 0.125913 0.125769 0.125673 0.125625 0.125625 0.130259 0.134937 0.139659 0.144421 0.149221 0.154058 0.158929 0.163833 0.168766 0.173727 0.178714 0.183725 0.188757 0.193808 0.198876 0.203959 0.209054 0.214159 0.219271 0.224389 0.229508 0.226753 0.224001 0.221255 0.218518 0.215793 0.213082 0.210389 0.207717 0.205068 0.202444 0.199849 0.197284 0.194752 0.192256 0.189797 0.187378 0.185 0.182666 0.180376 0.178134 0.175939 0.173794 0.1717 0.169657 0.167668 0.165733 0.163852 0.162028 0.160259 0.158548 0.156894 0.155298 0.153761 0.152282 0.150862 0.149501 0.148199 0.146957 0.145774 0.14465 0.143585 0.14258 0.141633 0.140745 0.139915 0.139143 0.138429 0.137773 0.137173 0.13663 0.136143 0.135712 0.135336 0.135015 0.134748 0.134535 0.134375 0.134269 0.134216 0.134216 0.139187 0.144208 0.149277 0.154391 0.159548 0.164744 0.169979 0.17525 0.180554 0.185888 0.191252 0.196641 0.202054 0.207488 0.212941 0.21841 0.223892 0.229385 0.234886 0.240392 0.245902 0.24292 0.239942 0.236971 0.234009 0.231061 0.228128 0.225214 0.222323 0.219456 0.216618 0.21381 0.211036 0.208298 0.205598 0.202938 0.200322 0.197751 0.195226 0.19275 0.190325 0.187952 0.185633 0.183368 0.18116 0.179009 0.176916 0.174883 0.172909 0.170997 0.169146 0.167357 0.165631 0.163967 0.162367 0.16083 0.159357 0.157947 0.156602 0.15532 0.154102 0.152948 0.151857 0.15083 0.149866 0.148964 0.148126 0.147349 0.146635 0.145982 0.145391 0.14486 0.144389 0.143979 0.143628 0.143336 0.143103 0.142928 0.142812 0.142754 0.142754 0.148065 0.153431 0.15885 0.164318 0.169833 0.175393 0.180994 0.186634 0.192311 0.198021 0.203763 0.209534 0.21533 0.221149 0.226989 0.232847 0.238719 0.244602 0.250495 0.256394 0.262295 0.259084 0.255877 0.252677 0.249488 0.246312 0.243154 0.240017 0.236903 0.233817 0.230761 0.227739 0.224752 0.221805 0.218899 0.216037 0.213221 0.210454 0.207738 0.205074 0.202465 0.199912 0.197416 0.19498 0.192605 0.190291 0.18804 0.185853 0.18373 0.181673 0.179682 0.177758 0.1759 0.174111 0.172389 0.170735 0.169149 0.167632 0.166183 0.164802 0.16349 0.162247 0.161071 0.159963 0.158923 0.157951 0.157046 0.156207 0.155436 0.15473 0.15409 0.153516 0.153006 0.152562 0.152181 0.151865 0.151612 0.151423 0.151297 0.151234 0.151234 0.156888 0.162602 0.168374 0.174199 0.180075 0.185999 0.191969 0.197982 0.204034 0.210123 0.216246 0.222401 0.228583 0.234791 0.24102 0.247269 0.253534 0.259811 0.266098 0.272392 0.278689 0.275245 0.271805 0.268373 0.264952 0.261546 0.25816 0.254795 0.251457 0.248148 0.244872 0.241631 0.23843 0.235271 0.232156 0.229089 0.226071 0.223107 0.220196 0.217343 0.214548 0.211813 0.209141 0.206532 0.203988 0.201511 0.1991 0.196759 0.194486 0.192283 0.190152 0.188091 0.186102 0.184186 0.182342 0.180571 0.178873 0.177247 0.175695 0.174216 0.17281 0.171477 0.170217 0.169029 0.167914 0.16687 0.165899 0.164999 0.16417 0.163412 0.162724 0.162107 0.161559 0.161081 0.160671 0.160331 0.160059 0.159855 0.159719 0.159651 0.159651 0.165651 0.171716 0.177843 0.184028 0.190268 0.196561 0.202902 0.20929 0.21572 0.222191 0.228698 0.235239 0.241811 0.248409 0.255032 0.261675 0.268336 0.27501 0.281695 0.288387 0.295082 0.291401 0.287725 0.284057 0.280401 0.276762 0.273143 0.269548 0.265981 0.262446 0.258946 0.255485 0.252065 0.248691 0.245366 0.242091 0.23887 0.235705 0.232598 0.229553 0.226571 0.223653 0.220802 0.218019 0.215305 0.212663 0.210092 0.207595 0.205171 0.202823 0.20055 0.198353 0.196232 0.194189 0.192223 0.190334 0.188523 0.18679 0.185135 0.183557 0.182057 0.180635 0.17929 0.178023 0.176832 0.175718 0.174681 0.173719 0.172834 0.172024 0.171288 0.170628 0.170042 0.16953 0.169092 0.168728 0.168436 0.168218 0.168073 0.168 0.168 0.17435 0.180769 0.187254 0.193802 0.200409 0.207073 0.213789 0.220555 0.227367 0.234222 0.241116 0.248047 0.255011 0.262004 0.269023 0.276065 0.283124 0.290199 0.297285 0.304378 0.311475 0.307554 0.303637 0.299729 0.295834 0.291957 0.288102 0.284272 0.280473 0.276708 0.272981 0.269296 0.265656 0.262064 0.258524 0.255039 0.251611 0.248244 0.24494 0.241701 0.238529 0.235426 0.232395 0.229436 0.226552 0.223743 0.221011 0.218357 0.215782 0.213287 0.210872 0.208538 0.206285 0.204115 0.202026 0.20002 0.198096 0.196255 0.194496 0.19282 0.191227 0.189716 0.188286 0.186939 0.185674 0.184489 0.183386 0.182364 0.181422 0.18056 0.179778 0.179075 0.178451 0.177906 0.17744 0.177052 0.176741 0.176509 0.176354 0.176276 0.176276 0.182979 0.189756 0.196603 0.203517 0.210494 0.217532 0.224626 0.231773 0.23897 0.246213 0.253498 0.260823 0.268183 0.275574 0.282992 0.290435 0.297898 0.305376 0.312867 0.320366 0.327869 0.323702 0.31954 0.315387 0.311249 0.30713 0.303034 0.298967 0.294932 0.290933 0.286975 0.283062 0.279198 0.275385 0.271628 0.26793 0.264293 0.260721 0.257216 0.253781 0.250417 0.247128 0.243915 0.240779 0.237722 0.234746 0.231852 0.229041 0.226313 0.22367 0.221113 0.218642 0.216256 0.213958 0.211747 0.209623 0.207586 0.205637 0.203775 0.202001 0.200314 0.198714 0.197201 0.195774 0.194434 0.19318 0.192011 0.190928 0.18993 0.189017 0.188188 0.187443 0.186782 0.186204 0.185709 0.185297 0.184968 0.184722 0.184557 0.184475 0.184475 0.191534 0.198672 0.205884 0.213168 0.220519 0.227934 0.23541 0.242942 0.250527 0.258162 0.265842 0.273563 0.281322 0.289115 0.296938 0.304786 0.312655 0.320542 0.328442 0.33635 0.344262 0.339845 0.335433 0.331032 0.326646 0.32228 0.317939 0.313629 0.309353 0.305117 0.300925 0.29678 0.292687 0.288651 0.284673 0.280759 0.27691 0.27313 0.269422 0.265789 0.262232 0.258754 0.255357 0.252043 0.248812 0.245668 0.24261 0.23964 0.23676 0.233969 0.231268 0.228659 0.226141 0.223715 0.22138 0.219139 0.216989 0.214932 0.212967 0.211095 0.209314 0.207625 0.206028 0.204523 0.203108 0.201784 0.200551 0.199407 0.198353 0.197389 0.196514 0.195727 0.195029 0.194418 0.193896 0.193461 0.193113 0.192852 0.192679 0.192592 0.192592 0.200011 0.207513 0.215095 0.222752 0.23048 0.238277 0.246137 0.254058 0.262035 0.270065 0.278143 0.286266 0.294428 0.302627 0.310857 0.319115 0.327395 0.335694 0.344007 0.352329 0.360656 0.355983 0.351316 0.346661 0.342021 0.337404 0.332814 0.328256 0.323736 0.319257 0.314826 0.310446 0.306121 0.301857 0.297656 0.293521 0.289458 0.285468 0.281555 0.27772 0.273968 0.270299 0.266717 0.263222 0.259817 0.256502 0.25328 0.250151 0.247116 0.244177 0.241332 0.238585 0.235933 0.233379 0.230922 0.228562 0.2263 0.224135 0.222067 0.220096 0.218222 0.216445 0.214765 0.21318 0.211691 0.210298 0.209 0.207797 0.206688 0.205672 0.204751 0.203923 0.203188 0.202545 0.201995 0.201537 0.201171 0.200896 0.200713 0.200622 0.200622 0.208405 0.216276 0.22423 0.232264 0.240373 0.248555 0.256804 0.265118 0.273491 0.28192 0.2904 0.298928 0.307498 0.316107 0.32475 0.333421 0.342117 0.350833 0.359564 0.368304 0.377049 0.372116 0.367189 0.362273 0.357375 0.352501 0.347656 0.342846 0.338076 0.333351 0.328676 0.324056 0.319496 0.314999 0.310571 0.306214 0.301932 0.297729 0.293607 0.28957 0.28562 0.281759 0.277989 0.274312 0.27073 0.267245 0.263857 0.260568 0.257378 0.254289 0.2513 0.248414 0.245629 0.242946 0.240366 0.237888 0.235513 0.23324 0.231069 0.229001 0.227034 0.225169 0.223405 0.221742 0.220179 0.218717 0.217355 0.216092 0.214928 0.213862 0.212895 0.212026 0.211254 0.210579 0.210002 0.209521 0.209136 0.208848 0.208656 0.20856 0.20856 0.216711 0.224954 0.233285 0.2417 0.250195 0.258765 0.267408 0.276118 0.284891 0.293723 0.30261 0.311547 0.32053 0.329553 0.338613 0.347703 0.35682 0.365957 0.37511 0.384274 0.393443 0.388242 0.383049 0.377868 0.372706 0.367569 0.362464 0.357396 0.35237 0.347394 0.342471 0.337607 0.332806 0.328074 0.323414 0.318831 0.314328 0.309909 0.305576 0.301333 0.297183 0.293127 0.289168 0.285308 0.281548 0.27789 0.274335 0.270885 0.267539 0.2643 0.261167 0.258141 0.255222 0.252411 0.249708 0.247112 0.244624 0.242243 0.23997 0.237803 0.235744 0.233791 0.231944 0.230203 0.228567 0.227036 0.22561 0.224288 0.223069 0.221954 0.220941 0.220031 0.219223 0.218517 0.217912 0.217409 0.217006 0.216704 0.216503 0.216403 0.216403 0.224926 0.233545 0.242257 0.251056 0.25994 0.268904 0.277943 0.287054 0.296232 0.305472 0.31477 0.324121 0.333521 0.342964 0.352445 0.361959 0.371501 0.381065 0.390646 0.400238 0.409836 0.404363 0.398896 0.393443 0.388011 0.382606 0.377234 0.371902 0.366617 0.361383 0.356207 0.351094 0.346049 0.341076 0.336181 0.331368 0.32664 0.322001 0.317455 0.313004 0.308651 0.304398 0.300248 0.296202 0.292263 0.288432 0.284709 0.281096 0.277595 0.274204 0.270926 0.267761 0.264708 0.261768 0.258941 0.256228 0.253627 0.251139 0.248763 0.246499 0.244348 0.242307 0.240378 0.238559 0.23685 0.235251 0.233761 0.23238 0.231107 0.229942 0.228885 0.227934 0.22709 0.226353 0.225721 0.225195 0.224775 0.22446 0.22425 0.224145 0.224145 0.233044 0.242043 0.25114 0.260329 0.269606 0.278967 0.288407 0.297923 0.30751 0.317163 0.326877 0.336647 0.346468 0.356336 0.366244 0.376187 0.38616 0.396157 0.406171 0.416197 0.42623 0.420476 0.41473 0.408999 0.403289 0.397609 0.391965 0.386363 0.380811 0.375315 0.36988 0.364513 0.359218 0.354001 0.348867 0.34382 0.338863 0.334002 0.329239 0.324576 0.320018 0.315567 0.311224 0.306991 0.302871 0.298864 0.294973 0.291197 0.287538 0.283997 0.280573 0.277268 0.274081 0.271012 0.268062 0.265231 0.262517 0.259922 0.257444 0.255083 0.25284 0.250712 0.248701 0.246805 0.245024 0.243357 0.241804 0.240365 0.239038 0.237824 0.236722 0.235731 0.234852 0.234083 0.233425 0.232876 0.232438 0.23211 0.231891 0.231781 0.231781 0.241061 0.250445 0.259931 0.269513 0.279187 0.28895 0.298796 0.308722 0.318722 0.328792 0.338927 0.349121 0.35937 0.369668 0.380008 0.390386 0.400796 0.41123 0.421684 0.43215 0.442623 0.436582 0.430549 0.424532 0.418538 0.412576 0.406652 0.400775 0.39495 0.389185 0.383486 0.377859 0.37231 0.366843 0.361466 0.35618 0.350992 0.345904 0.340921 0.336045 0.331279 0.326626 0.322088 0.317667 0.313365 0.309182 0.305121 0.301181 0.297365 0.293672 0.290102 0.286657 0.283335 0.280138 0.277065 0.274116 0.27129 0.268588 0.266008 0.263551 0.261215 0.259002 0.256908 0.254936 0.253082 0.251349 0.249733 0.248236 0.246856 0.245593 0.244447 0.243417 0.242502 0.241702 0.241018 0.240448 0.239992 0.23965 0.239423 0.239309 0.239309 0.248973 0.258746 0.268625 0.278604 0.288681 0.29885 0.309106 0.319446 0.329865 0.340357 0.350918 0.361541 0.372223 0.382956 0.393735 0.404554 0.415406 0.426285 0.437184 0.448097 0.459016 0.45268 0.446352 0.440041 0.433756 0.427504 0.421294 0.415133 0.409029 0.402989 0.397019 0.391127 0.385318 0.379598 0.373971 0.368444 0.363019 0.357702 0.352496 0.347403 0.342428 0.337571 0.332837 0.328225 0.323739 0.319379 0.315147 0.311043 0.307068 0.303222 0.299507 0.295921 0.292466 0.28914 0.285944 0.282877 0.279939 0.27713 0.27445 0.271896 0.26947 0.26717 0.264996 0.262947 0.261022 0.259222 0.257544 0.25599 0.254557 0.253246 0.252056 0.250986 0.250037 0.249207 0.248496 0.247905 0.247432 0.247077 0.246841 0.246723 0.246723 0.256775 0.266942 0.277218 0.287599 0.298082 0.308661 0.319333 0.330092 0.340934 0.351853 0.362845 0.373904 0.385024 0.396198 0.407422 0.418688 0.429989 0.441319 0.45267 0.464036 0.47541 0.46877 0.462138 0.455526 0.44894 0.442391 0.435886 0.429435 0.423044 0.416722 0.410476 0.404312 0.398238 0.392258 0.386379 0.380604 0.37494 0.36939 0.363957 0.358645 0.353457 0.348395 0.343461 0.338658 0.333987 0.329449 0.325045 0.320775 0.316642 0.312644 0.308782 0.305056 0.301466 0.298012 0.294693 0.291509 0.28846 0.285545 0.282764 0.280115 0.277598 0.275213 0.272958 0.270833 0.268838 0.266972 0.265233 0.263621 0.262137 0.260778 0.259545 0.258436 0.257452 0.256592 0.255856 0.255243 0.254753 0.254386 0.254141 0.254019 0.254019 0.264464 0.275028 0.285705 0.296493 0.307386 0.318381 0.329472 0.340655 0.351925 0.363278 0.374706 0.386206 0.39777 0.409392 0.421067 0.432786 0.444543 0.456331 0.468142 0.479969 0.491803 0.48485 0.477906 0.470983 0.464088 0.457233 0.450426 0.443675 0.436991 0.43038 0.42385 0.417409 0.411063 0.404818 0.39868 0.392655 0.386747 0.380959 0.375297 0.369763 0.364359 0.35909 0.353956 0.348959 0.344101 0.339384 0.334807 0.330372 0.326079 0.321929 0.31792 0.314054 0.31033 0.306748 0.303307 0.300007 0.296847 0.293827 0.290945 0.288201 0.285594 0.283124 0.28079 0.278591 0.276525 0.274593 0.272794 0.271127 0.26959 0.268184 0.266908 0.265762 0.264744 0.263854 0.263093 0.262459 0.261952 0.261572 0.261318 0.261192 0.261192 0.272034 0.283 0.294083 0.305281 0.316589 0.328003 0.339519 0.351131 0.362835 0.374625 0.386496 0.398442 0.410457 0.422534 0.434666 0.446847 0.459067 0.471321 0.483599 0.495894 0.508197 0.50092 0.493654 0.48641 0.479197 0.472027 0.464908 0.45785 0.450864 0.443956 0.437135 0.43041 0.423786 0.417271 0.41087 0.404589 0.398432 0.392404 0.386509 0.380749 0.375128 0.369649 0.364313 0.359121 0.354076 0.349178 0.344428 0.339827 0.335375 0.331071 0.326917 0.322911 0.319053 0.315344 0.311781 0.308365 0.305094 0.301969 0.298988 0.29615 0.293455 0.290901 0.288487 0.286214 0.284079 0.282083 0.280223 0.278501 0.276913 0.275461 0.274143 0.272958 0.271907 0.270988 0.270202 0.269547 0.269023 0.268631 0.268369 0.268239 0.268239 0.279482 0.290853 0.302347 0.313959 0.325687 0.337525 0.349469 0.361515 0.373658 0.385892 0.398211 0.41061 0.423083 0.435621 0.448218 0.460867 0.473559 0.486285 0.499039 0.51181 0.52459 0.51698 0.509381 0.501806 0.494264 0.486769 0.479329 0.471955 0.464657 0.457445 0.450326 0.443309 0.436401 0.42961 0.42294 0.416398 0.409989 0.403716 0.397585 0.391597 0.385756 0.380065 0.374525 0.369137 0.363903 0.358824 0.353901 0.349133 0.344521 0.340065 0.335765 0.331619 0.327629 0.323792 0.320108 0.316577 0.313197 0.309968 0.306888 0.303957 0.301173 0.298536 0.296045 0.293698 0.291495 0.289435 0.287516 0.285739 0.284101 0.282603 0.281244 0.280022 0.278938 0.27799 0.277179 0.276504 0.275964 0.275559 0.275289 0.275155 0.275155 0.286804 0.298584 0.310491 0.322522 0.334673 0.34694 0.359318 0.371803 0.38439 0.397073 0.409847 0.422705 0.435642 0.448649 0.461719 0.474843 0.488015 0.501224 0.514461 0.527718 0.540984 0.533028 0.525085 0.517167 0.509286 0.501455 0.493683 0.485984 0.478366 0.47084 0.463415 0.456099 0.4489 0.441826 0.434882 0.428075 0.421408 0.414888 0.408517 0.402298 0.396235 0.39033 0.384584 0.378999 0.373576 0.368315 0.363218 0.358283 0.353512 0.348904 0.344457 0.340173 0.33605 0.332087 0.328283 0.324637 0.321149 0.317816 0.314639 0.311616 0.308745 0.306026 0.303458 0.301039 0.298769 0.296645 0.294669 0.292837 0.29115 0.289607 0.288207 0.286948 0.285832 0.284856 0.28402 0.283325 0.282769 0.282352 0.282075 0.281936 0.281936 0.293994 0.306187 0.318512 0.330965 0.343544 0.356243 0.36906 0.381989 0.395025 0.408163 0.421398 0.434723 0.44813 0.461614 0.475164 0.488774 0.502433 0.516133 0.529864 0.543615 0.557377 0.549064 0.540764 0.532491 0.524259 0.51608 0.507966 0.49993 0.491983 0.484134 0.476394 0.468772 0.461275 0.453912 0.446688 0.43961 0.432683 0.42591 0.419296 0.412844 0.406556 0.400435 0.394482 0.388699 0.383086 0.377643 0.372371 0.367271 0.36234 0.35758 0.352988 0.348566 0.344311 0.340222 0.336299 0.33254 0.328944 0.32551 0.322237 0.319122 0.316166 0.313366 0.310722 0.308231 0.305894 0.303709 0.301675 0.299791 0.298055 0.296468 0.295027 0.293733 0.292585 0.291581 0.290722 0.290007 0.289435 0.289007 0.288721 0.288578 0.288578 0.301048 0.313658 0.326404 0.339284 0.352294 0.36543 0.378689 0.392067 0.405558 0.419157 0.432859 0.446657 0.460544 0.474511 0.488551 0.502654 0.516811 0.531012 0.545246 0.559503 0.57377 0.565086 0.556416 0.547775 0.539179 0.53064 0.522172 0.513788 0.5055 0.49732 0.489256 0.481319 0.473517 0.465858 0.458349 0.450995 0.443802 0.436773 0.429913 0.423225 0.416711 0.410373 0.404212 0.398229 0.392425 0.3868 0.381354 0.376087 0.370998 0.366086 0.361351 0.356791 0.352405 0.348192 0.344151 0.34028 0.336578 0.333044 0.329675 0.326471 0.323429 0.32055 0.317831 0.315271 0.312868 0.310623 0.308532 0.306596 0.304813 0.303181 0.301702 0.300372 0.299193 0.298162 0.29728 0.296545 0.295958 0.295518 0.295225 0.295078 0.295078 0.307963 0.320992 0.334163 0.347472 0.360917 0.374494 0.3882 0.402031 0.415983 0.430049 0.444225 0.458503 0.472876 0.487336 0.501874 0.516481 0.531146 0.545858 0.560606 0.575379 0.590164 0.581093 0.572038 0.563015 0.55404 0.545128 0.536294 0.527551 0.518911 0.510388 0.501991 0.493731 0.485616 0.477655 0.469854 0.462219 0.454756 0.447468 0.440359 0.433432 0.42669 0.420133 0.413762 0.40758 0.401585 0.395778 0.390159 0.384726 0.379479 0.374417 0.369538 0.364842 0.360327 0.355991 0.351833 0.347852 0.344045 0.340411 0.336948 0.333656 0.330531 0.327574 0.324781 0.322152 0.319686 0.31738 0.315235 0.313247 0.311418 0.309744 0.308226 0.306862 0.305652 0.304594 0.303689 0.302936 0.302334 0.301883 0.301582 0.301432 0.301432 0.314734 0.328186 0.341783 0.355524 0.369407 0.383429 0.397587 0.411876 0.426293 0.440832 0.455487 0.470253 0.485121 0.500083 0.515129 0.530249 0.545433 0.560668 0.575942 0.591243 0.606557 0.597084 0.587628 0.578207 0.568839 0.55954 0.550325 0.541209 0.532206 0.523329 0.514589 0.505997 0.497562 0.489292 0.481193 0.473272 0.465534 0.457984 0.450623 0.443455 0.436482 0.429706 0.423126 0.416743 0.410558 0.404569 0.398776 0.393178 0.387775 0.382563 0.377543 0.372712 0.368069 0.363612 0.359339 0.355248 0.351338 0.347607 0.344052 0.340673 0.337467 0.334432 0.331568 0.328872 0.326342 0.323979 0.321779 0.319742 0.317866 0.316151 0.314595 0.313198 0.311958 0.310875 0.309947 0.309176 0.308559 0.308096 0.307788 0.307635 0.307635 0.321357 0.335233 0.349259 0.363435 0.377759 0.392229 0.406841 0.421593 0.43648 0.451498 0.466641 0.481901 0.497272 0.512745 0.528309 0.543954 0.559668 0.575438 0.591252 0.607094 0.622951 0.613057 0.603183 0.593347 0.583569 0.573866 0.564256 0.554754 0.545375 0.536133 0.52704 0.518107 0.509343 0.500756 0.492354 0.484142 0.476126 0.468309 0.460694 0.453284 0.446079 0.439082 0.432292 0.425709 0.419333 0.413163 0.407199 0.401437 0.395878 0.390519 0.385358 0.380395 0.375625 0.371049 0.366662 0.362465 0.358453 0.354626 0.350981 0.347517 0.344231 0.341121 0.338186 0.335424 0.332834 0.330413 0.32816 0.326075 0.324155 0.322399 0.320807 0.319376 0.318107 0.316999 0.31605 0.31526 0.314629 0.314156 0.313841 0.313684 0.313684 0.327828 0.342129 0.356586 0.371198 0.385966 0.400885 0.415956 0.431174 0.446537 0.462039 0.477675 0.493439 0.509322 0.525315 0.541409 0.55759 0.573847 0.590166 0.606532 0.62293 0.639344 0.629011 0.618699 0.60843 0.598224 0.588101 0.578079 0.568176 0.558408 0.548789 0.539331 0.530047 0.520946 0.512036 0.503325 0.494817 0.486518 0.478432 0.470561 0.462906 0.455469 0.448251 0.441251 0.434468 0.427903 0.421553 0.415417 0.409494 0.403781 0.398276 0.392977 0.387882 0.382989 0.378295 0.373797 0.369494 0.365384 0.361463 0.35773 0.354182 0.350818 0.347635 0.344631 0.341805 0.339155 0.336679 0.334375 0.332242 0.330279 0.328484 0.326856 0.325394 0.324096 0.322963 0.321994 0.321187 0.320541 0.320058 0.319736 0.319575 0.319575 0.334141 0.348868 0.363757 0.378807 0.394019 0.409391 0.424923 0.440612 0.456454 0.472446 0.488583 0.504858 0.521262 0.537786 0.55442 0.571151 0.587964 0.604847 0.621781 0.63875 0.655738 0.644943 0.634173 0.623449 0.612795 0.602233 0.591783 0.581464 0.571291 0.561282 0.551449 0.541805 0.532358 0.523118 0.514091 0.505283 0.496699 0.48834 0.48021 0.47231 0.464641 0.457201 0.449992 0.443011 0.436257 0.429729 0.423