<VTKFile type="ImageData">
<ImageData WholeExtent="0 80 0 60 0 0" Origin="0.1 0.1 0" Spacing="0.01 0.02 0">
<Piece Extent="0 80 0 60 0 0">
<PointData>
<DataArray Name="T" NumberOfComponents="1" format="ascii" type="Float64">
36.5926 36.5926 36.7242 36.9874 37.3817 37.9065 38.5607 39.343 40.2514 41.2837 42.4377 43.7111 45.1019 46.6087 48.2307 49.9677 51.8199 53.787 55.8671 58.0544 60.3347 62.6794 65.0336 67.3006 69.3198 70.8458 71.5559 71.175 69.9758 68.278 66.3244 64.2725 62.2159 60.2055 58.2661 56.4071 54.6293 52.9289 51.2997 49.7347 48.2267 46.7684 45.3528 43.9734 42.6236 41.2968 39.9865 38.6855 37.3859 36.0785 34.7521 33.3918 31.9776 30.4805 28.8561 27.0333 24.8917 22.2181 23.229 23.7038 23.8518 23.7891 23.5829 23.2733 22.8851 22.4342 21.9308 21.3819 20.7919 20.1638 19.4997 18.8009 18.068 17.3017 16.5019 15.669 14.8027 13.9031 12.9701 12.0036 11.0036 36.5926 36.5926 36.7242 36.9874 37.3817 37.9065 38.5607 39.343 40.2514 41.2837 42.4377 43.7111 45.1019 46.6087 48.2307 49.9677 51.8199 53.787 55.8671 58.0544 60.3347 62.6794 65.0336 67.3006 69.3198 70.8458 71.5559 71.175 69.9758 68.278 66.3244 64.2725 62.2159 60.2055 58.2661 56.4071 54.6293 52.9289 51.2997 49.7347 48.2267 46.7684 45.3528 43.9734 42.6236 41.2968 39.9865 38.6855 37.3859 36.0785 34.7521 33.3918 31.9776 30.4805 28.8561 27.0333 24.8917 22.2181 23.229 23.7038 23.8518 23.7891 23.5829 23.2733 22.8851 22.4342 21.9308 21.3819 20.7919 20.1638 19.4997 18.8009 18.068 17.3017 16.5019 15.669 14.8027 13.9031 12.9701 12.0036 11.0036 36.0659 36.0659 36.1982 36.4628 36.8597 37.3886 38.0487 38.8384 39.7555 40.7972 41.9602 43.2413 44.6379 46.1478 47.7706 49.5072 51.3602 53.3348 55.4386 57.6819 60.0778 62.641 65.3822 68.2919 71.2928 74.1092 75.9197 74.4488 71.9697 69.3015 66.7173 64.2916 62.0311 59.9215 57.9444 56.0824 54.3199 52.6439 51.0429 49.5071 48.0277 46.5972 45.2084 43.8551 42.5312 41.2311 39.9492 38.6797 37.417 36.155 34.8873 33.6075 32.3095 30.9895 29.6498 28.3082 27.0199 25.9273 25.3734 25.0112 24.6942 24.3633 23.9965 23.5875 23.136 22.6439 22.1132 21.5461 20.944 20.308 19.6388 18.9368 18.2022 17.435 16.635 15.8021 14.9361 14.0368 13.104 12.1377 11.1377 35.0102 35.0102 35.1429 35.4091 35.8098 36.3461 37.018 37.8242 38.7616 39.8254 41.0102 42.3101 43.7199 45.2357 46.8557 48.5805 50.4143 52.3661 54.4519 56.6987 59.1519 61.8905 65.0569 68.9188 74.0037 81.3959 93.4093 81.755 74.7202 69.9891 66.4757 63.6503 61.2425 59.1074 57.1627 55.3591 53.6649 52.0587 50.5255 49.0535 47.6337 46.2587 44.9223 43.6189 42.3439 41.0929 39.8618 38.647 37.4454 36.254 35.071 33.8957 32.7295 31.5776 30.451 29.3699 28.3657 27.481 26.7515 26.1374 25.5925 25.081 24.5791 24.0717 23.5497 23.0074 22.4417 21.8503 21.2317 20.5849 19.9091 19.2033 18.4669 17.6993 16.8997 16.0677 15.2027 14.3043 13.3722 12.4063 11.4063 33.4237 33.4237 33.5539 33.817 34.2176 34.7609 35.4502 36.2854 37.2616 38.37 39.5997 40.9391 42.3778 43.9072 45.5214 47.2177 48.9964 50.8616 52.8216 54.8895 57.0842 59.4293 61.9493 64.6532 67.4862 70.197 71.9847 70.5825 68.2563 65.8061 63.4822 61.3381 59.3633 57.5316 55.8171 54.1979 52.6574 51.1823 49.7628 48.3909 47.0604 45.7661 44.5037 43.2696 42.0608 40.8747 39.709 38.562 37.4325 36.3198 35.2242 34.1473 33.0921 32.064 31.0709 30.1234 29.2339 28.4138 27.6677 26.9872 26.3569 25.7605 25.1836 24.6145 24.0439 23.4652 22.8728 22.2629 21.6322 20.9783 20.2988 19.5922 18.8567 18.0912 17.2943 16.4651 15.6028 14.7066 13.7761 12.811 11.811 31.3165 31.3165 31.4332 31.6746 32.055 32.5916 33.299 34.1824 35.2325 36.4297 37.7503 39.1712 40.6726 42.2391 43.8592 45.5253 47.2325 48.9779 50.7592 52.5736 54.4147 56.2687 58.1064 59.8708 61.4573 62.6909 63.3194 63.1063 62.2884 61.1177 59.7697 58.3486 56.9117 55.4876 54.0895 52.7225 51.3876 50.0839 48.8097 47.5631 46.3423 45.1456 43.9717 42.8192 41.6871 40.5747 39.4815 38.4072 37.3522 36.317 35.3029 34.3118 33.3465 32.4105 31.5084 30.6449 29.8245 29.0502 28.322 27.6361 26.9855 26.3621 25.7572 25.1627 24.5714 23.977 23.3743 22.7586 22.1261 21.4734 20.7976 20.0963 19.3671 18.6083 17.8181 16.9951 16.1381 15.2462 14.3187 13.3551 12.3551 28.7423 28.7423 28.8139 28.9764 29.2673 29.7387 30.4442 31.4127 32.615 33.9959 35.4997 37.0812 38.7075 40.3562 42.013 43.6684 45.316 46.9503 48.5648 50.1505 51.6937 53.1731 54.557 55.7999 56.8405 57.6047 58.0203 58.0494 57.7312 57.1392 56.3489 55.423 54.4087 53.3393 52.2376 51.1189 49.9933 48.8675 47.746 46.632 45.5276 44.4345 43.3539 42.2869 41.2346 40.1979 39.1779 38.1757 37.1925 36.2299 35.2895 34.3733 33.4833 32.6219 31.7914 30.9939 30.2307 29.5023 28.8074 28.1433 27.5058 26.8896 26.289 25.698 25.111 24.5225 23.9275 23.3216 22.7006 22.0607 21.3987 20.7114 19.9963 19.2509 18.473 17.661 16.8132 15.9284 15.0057 14.0446 13.0446 25.8819 25.8819 25.8312 25.764 25.758 25.9495 26.537 27.7082 29.283 31.07 32.9384 34.8123 36.6525 38.4413 40.172 41.8427 43.453 45.0018 46.4856 47.8977 49.2275 50.4593 51.5717 52.5384 53.329 53.9133 54.2673 54.3821 54.2689 53.954 53.4703 52.851 52.1259 51.3201 50.4538 49.5428 48.5996 47.6337 46.6527 45.6625 44.668 43.6732 42.6816 41.6962 40.7196 39.7545 38.8032 37.8678 36.9507 36.054 35.1796 34.3296 33.5057 32.7097 31.9426 31.2053 30.498 29.82 29.1696 28.5444 27.9409 27.355 26.7822 26.2176 25.6564 25.0936 24.5247 23.945 23.3504 22.7368 22.1006 21.4383 20.7467 20.0231 19.2649 18.4698 17.6361 16.7621 15.8468 14.8894 13.8894 23.2242 23.2242 22.9146 22.3069 21.4584 20.5766 20.2951 22.3891 25.1018 27.8191 30.3552 32.6778 34.8033 36.7591 38.5708 40.2585 41.8364 43.3132 44.6927 45.9745 47.1538 48.2226 49.1694 49.9809 50.6429 51.1427 51.4713 51.6266 51.6135 51.444 51.1341 50.7021 50.166 49.5431 48.8486 48.0959 47.2966 46.4604 45.5959 44.7101 43.8094 42.8993 41.9846 41.0698 40.159 39.256 38.3643 37.4871 36.6276 35.7885 34.9723 34.1813 33.4172 32.6813 31.9745 31.297 30.6482 30.0269 29.4312 28.8585 28.3054 27.7681 27.2424 26.7239 26.2079 25.6897 25.1647 24.6283 24.076 23.5035 22.9068 22.282 21.6254 20.9337 20.204 19.4335 18.6199 17.7614 16.8565 15.9043 14.9043 21.8048 21.8048 21.1906 19.8127 17.2922 12.8023 4.55103 14.5954 20.9027 25.2924 28.6261 31.3316 33.6326 35.6533 37.4657 39.1136 40.6241 42.0135 43.2911 44.4607 45.5225 46.4734 47.3086 48.0216 48.606 49.0563 49.3692 49.544 49.584 49.4953 49.2868 48.9692 48.5538 48.0523 47.476 46.8355 46.1408 45.4008 44.6239 43.8175 42.9886 42.1434 41.2879 40.4275 39.5674 38.7124 37.8672 37.0359 36.2227 35.4312 34.6644 33.9252 33.2155 32.5368 31.8895 31.2737 30.6883 30.1316 29.6012 29.094 28.6065 28.1346 27.674 27.2201 26.768 26.3131 25.8504 25.375 24.8822 24.3672 23.8255 23.2527 22.6444 21.9968 21.3062 20.5693 19.7834 18.946 18.0555 17.1105 16.1105 22.8425 22.8425 22.5209 21.889 21.004 20.0733 19.7302 21.7496 24.3743 26.9898 29.4102 31.6028 33.5837 35.3803 37.0184 38.5186 39.8961 41.1614 42.3211 43.3784 44.3343 45.1877 45.9362 46.5765 47.1054 47.5201 47.8188 48.0012 48.0691 48.0257 47.8763 47.6272 47.286 46.8608 46.36 45.7923 45.1659 44.4891 43.7697 43.0152 42.2327 41.4291 40.6108 39.7841 38.9552 38.1299 37.3139 36.5126 35.7313 34.9745 34.2466 33.5509 32.8902 32.266 31.679 31.1287 30.6135 30.1311 29.6782 29.251 28.8452 28.4561 28.079 27.7086 27.3399 26.9676 26.5866 26.1915 25.777 25.3379 24.869 24.3649 23.8208 23.2318 22.5934 21.9015 21.1525 20.3435 19.4721 18.5368 17.5368 25.1668 25.1668 25.0923 24.9772 24.8991 24.9938 25.4592 26.4824 27.8826 29.4677 31.1058 32.7205 34.2718 35.7416 37.1229 38.4144 39.617 40.7319 41.7602 42.7018 43.5562 44.3217 44.9962 45.5772 46.0619 46.4478 46.7332 46.9169 46.9989 46.9805 46.8642 46.6538 46.3542 45.9714 45.5121 44.9834 44.3928 43.7478 43.056 42.3248 41.5615 40.7732 39.967 39.1498 38.3286 37.5102 36.7017 35.9098 35.1413 34.4026 33.6995 33.037 32.4186 31.8467 31.3219 30.8431 30.4078 30.0124 29.6523 29.3223 29.0169 28.7302 28.4566 28.1904 27.9259 27.6573 27.3791 27.0854 26.7704 26.4282 26.0526 25.6375 25.1768 24.6644 24.0945 23.4619 22.7618 21.9903 21.1444 20.2219 19.2219 27.7893 27.7893 27.8258 27.9179 28.1027 28.4315 28.957 29.7072 30.6515 31.7333 32.8955 34.0914 35.2863 36.4565 37.5865 38.6659 39.6884 40.6493 41.5456 42.3745 43.1334 43.8198 44.4306 44.9628 45.4131 45.778 46.0544 46.2393 46.3306 46.3269 46.2285 46.0369 45.7553 45.3883 44.9417 44.4222 43.8371 43.1937 42.4997 41.7627 40.9901 40.1891 39.3672 38.5318 37.6905 36.8514 36.0227 35.2132 34.4321 33.6883 32.9905 32.3462 31.7613 31.2392 30.7805 30.3832 30.0426 29.7527 29.5062 29.2955 29.1132 28.952 28.8049 28.6656 28.5279 28.3858 28.2333 28.0645 27.8728 27.6518 27.3942 27.0927 26.7395 26.3268 25.8468 25.2923 24.6568 23.935 23.1227 22.2172 21.2172 30.2657 30.2657 30.3371 30.4874 30.7304 31.0822 31.5562 32.1559 32.8701 33.6771 34.5509 35.4659 36.3993 37.3328 38.2519 39.1456 40.0055 40.8255 41.6006 42.327 43.0012 43.6198 44.1794 44.6761 45.1055 45.4626 45.7416 45.9365 46.0417 46.0524 45.9654 45.7799 45.4979 45.1235 44.663 44.1238 43.5141 42.842 42.1158 41.3432 40.5318 39.6888 38.8215 37.9372 37.044 36.1506 35.2667 34.4035 33.5735 32.7901 32.0672 31.4179 30.8527 30.3779 29.994 29.696 29.4749 29.3191 29.2165 29.1554 29.1253 29.1169 29.1222 29.1345 29.1476 29.1557 29.1533 29.1345 29.0929 29.0213 28.9116 28.7547 28.5404 28.2582 27.8971 27.4465 26.8971 26.2414 25.4738 24.5908 23.5908 32.4566 32.4566 32.5325 32.6866 32.9226 33.2441 33.6529 34.1464 34.7174 35.354 36.0419 36.7662 37.5121 38.2668 39.0191 39.7602 40.4826 41.181 41.8507 42.4884 43.091 43.6558 44.1796 44.6586 45.0875 45.4593 45.7648 45.9928 46.1312 46.1685 46.096 45.9094 45.6099 45.2034 44.6991 44.1077 43.4402 42.707 41.9172 41.0791 40.1999 39.2859 38.3434 37.3786 36.3984 35.4114 34.4279 33.4613 32.5284 31.6498 30.8497 30.1531 29.5829 29.1529 28.8636 28.7016 28.6458 28.6728 28.7608 28.8916 29.0505 29.2267 29.4119 29.6002 29.7869 29.9678 30.1389 30.2958 30.433 30.5433 30.6179 30.6458 30.6133 30.5053 30.305 29.9958 29.563 28.9955 28.2863 27.4322 26.4322 34.344 34.344 34.4153 34.5582 34.7724 35.0572 35.4103 35.8274 36.3019 36.8254 37.388 37.9795 38.5899 39.2099 39.8317 40.4489 41.0564 41.6507 42.229 42.7899 43.3324 43.8558 44.3593 44.8413 45.2979 45.7212 46.0978 46.4074 46.6249 46.724 46.683 46.4905 46.1497 45.6743 45.0834 44.396 43.6295 42.7979 41.912 40.9797 40.0068 38.9973 37.9544 36.881 35.7806 34.6581 33.5217 32.3842 31.2657 30.1961 29.2175 28.3833 27.7517 27.3657 27.2238 27.2823 27.4854 27.7823 28.1344 28.515 28.9068 29.3001 29.6894 30.0726 30.4491 30.8188 31.1815 31.5362 31.8802 32.2081 32.5116 32.7777 32.9888 33.1216 33.1484 33.0396 32.7681 32.316 31.6782 30.8576 29.8576 35.9458 35.9458 36.0122 36.1441 36.34 36.5972 36.9118 37.2785 37.6906 38.1401 38.6187 39.1176 39.629 40.1458 40.6628 41.1762 41.6835 42.1838 42.6773 43.1652 43.65 44.1351 44.6252 45.1259 45.6412 46.1702 46.6989 47.1906 47.5919 47.8403 47.8759 47.665 47.2274 46.608 45.8531 45.001 44.0793 43.1061 42.0921 41.0428 39.9599 38.8424 37.6876 36.4918 35.2507 33.9606 32.6197 31.2311 29.8072 28.3787 27.0074 25.8036 24.9376 24.6022 24.782 25.2853 25.9494 26.6711 27.3944 28.0929 28.7577 29.389 29.9915 30.5721 31.1383 31.6975 32.2562 32.8197 33.3913 33.971 34.5544 35.1302 35.6772 36.1616 36.5346 36.734 36.6956 36.379 35.8016 35.0004 34.0004 37.2824 37.2824 37.3467 37.474 37.6622 37.9076 38.2051 38.5483 38.9292 39.3389 39.7677 40.2061 40.646 41.0813 41.5087 41.9274 42.3385 42.7443 43.1478 43.5533 43.9661 44.3941 44.8494 45.3516 45.9295 46.6203 47.4479 48.3355 49.1709 49.807 50.0555 49.7458 49.0328 48.0833 47.0117 45.8845 44.735 43.5772 42.4135 41.2406 40.0514 38.8365 37.5849 36.2836 34.9169 33.4662 31.909 30.2188 28.3672 26.3326 24.1273 21.8728 20.001 19.778 21.0464 22.645 24.1826 25.5538 26.7532 27.8059 28.7428 29.5928 30.381 31.1291 31.8558 32.5781 33.3117 34.0711 34.8696 35.7192 36.628 37.5975 38.6159 39.6474 40.6149 41.3799 41.736 41.4846 40.821 39.9381 38.9381 38.362 38.362 38.4287 38.5608 38.7557 39.0094 39.3158 39.6671 40.053 40.4613 40.8779 41.2887 41.6813 42.0483 42.3894 42.7093 43.0149 43.3133 43.6108 43.9122 44.2215 44.5433 44.8866 45.2742 45.7666 46.523 47.9572 49.6888 51.5476 53.324 54.4675 53.4399 51.7847 50.0464 48.3931 46.8568 45.4245 44.0714 42.7722 41.5037 40.2452 38.9775 37.6815 36.3367 34.9191 33.3978 31.7302 29.852 27.659 24.9694 21.4441 16.4112 8.46926 8.9882 15.9901 20.2486 23.0814 25.1238 26.699 27.9821 29.0756 30.0439 30.9313 31.7712 32.5907 33.4139 34.2642 35.1655 36.1442 37.2303 38.4586 39.869 41.5026 43.3891 45.5051 47.6619 49.2057 48.2398 46.7172 45.3442 44.3442 39.1748 39.1748 39.249 39.3962 39.6144 39.9 40.2471 40.6472 41.0875 41.5502 42.0118 42.444 42.8186 43.1191 43.3552 43.5482 43.7197 43.8862 44.0583 44.2396 44.4269 44.6065 44.7466 44.7778 44.5474 43.7145 47.2769 50.5333 54.2537 59.3729 67.5635 59.6447 54.869 51.6696 49.3064 47.413 45.797 44.3504 43.0079 41.7266 40.4758 39.2316 37.9732 36.6812 35.3357 33.9149 32.3939 30.7445 28.937 26.9488 24.7915 22.5857 20.7631 20.5895 21.9072 23.555 25.1419 26.5627 27.8125 28.9173 29.909 30.8182 31.672 32.4951 33.3107 34.1416 35.0123 35.9503 36.9891 38.1725 39.5614 41.2473 43.3783 46.2124 50.2319 56.3959 66.7144 57.2213 52.0155 49.258 48.258 39.6912 39.6912 39.7767 39.9477 40.2038 40.5443 40.9668 41.4663 42.0321 42.6436 43.2635 43.8296 44.2524 44.4474 44.4932 44.4733 44.4441 44.4374 44.4685 44.5432 44.6627 44.8276 45.0428 45.3273 45.7382 46.4323 47.821 49.5222 51.3641 53.1361 54.2865 53.2765 51.6488 49.9475 48.3405 46.8595 45.4919 44.2132 42.9989 41.8274 40.6804 39.5421 38.3993 37.2399 36.0538 34.8326 33.5711 32.2693 30.9378 29.6052 28.3321 27.2277 26.4613 26.2253 26.5039 27.1051 27.8665 28.6854 29.5065 30.3047 31.0729 31.8137 32.5353 33.2492 33.9691 34.7104 35.4911 36.3316 37.2559 38.2928 39.476 40.8452 42.4413 44.2942 46.3806 48.5122 50.0353 49.0537 47.5205 46.1421 45.1421 39.8656 39.8656 39.9627 40.1584 40.4559 40.8604 41.3788 42.0201 42.7937 43.7034 44.7305 45.788 46.5976 46.3726 45.8942 45.4355 45.0786 44.8374 44.7043 44.6674 44.7169 44.8478 45.062 45.3708 45.7966 46.3715 47.1153 47.9479 48.7545 49.3856 49.6511 49.3791 48.723 47.8487 46.87 45.8529 44.8309 43.8182 42.8186 41.8304 40.8496 39.8714 38.8912 37.9055 36.9122 35.9119 34.9091 33.9134 32.9424 32.0239 31.1982 30.5173 30.0381 29.803 29.8098 30.0145 30.3611 30.7995 31.2918 31.8124 32.3462 32.8858 33.4295 33.9796 34.5413 35.1221 35.7307 36.3775 37.073 37.8271 38.6473 39.5348 40.478 41.4414 42.3487 43.062 43.3757 43.092 42.4064 41.5124 40.5124 39.6515 39.6515 39.7541 39.9619 40.2806 40.7205 41.2988 42.0451 43.0112 44.293 46.0761 48.7382 53.0813 49.3111 47.2167 45.9905 45.25 44.8049 44.5553 44.4461 44.4453 44.5345 44.7033 44.946 45.259 45.6349 46.0547 46.4776 46.8469 47.0971 47.1661 47.0178 46.6704 46.1671 45.5532 44.866 44.1326 43.3711 42.5927 41.8039 41.0085 40.2085 39.4054 38.6011 37.7983 37.0017 36.2184 35.4588 34.737 34.0717 33.4848 33 32.6386 32.4134 32.3238 32.3561 32.4887 32.6983 32.9636 33.2673 33.5962 33.9416 34.2982 34.6636 35.0377 35.4218 35.818 36.2287 36.6552 37.097 37.5494 38.0017 38.4338 38.8131 39.0923 39.2108 39.1056 38.7378 38.1257 37.3069 36.3069 39.0272 39.0272 39.1248 39.3215 39.6205 40.0268 40.5472 41.1906 41.9662 42.8775 43.9059 44.9639 45.7732 45.5468 45.0658 44.6029 44.2399 43.9902 43.8451 43.7908 43.8139 43.9031 44.0483 44.2406 44.4696 44.7226 44.9814 45.2219 45.4157 45.5333 45.5503 45.4527 45.2413 44.928 44.5297 44.064 43.5469 42.9915 42.4079 41.804 41.1858 40.5579 39.9248 39.2905 38.6598 38.0384 37.4331 36.8523 36.3061 35.8057 35.3631 34.9895 34.6939 34.4812 34.3506 34.2962 34.3081 34.3743 34.4824 34.621 34.7803 34.9525 35.1315 35.313 35.4941 35.6728 35.8474 36.0163 36.1767 36.3244 36.4522 36.5494 36.6006 36.5854 36.4789 36.2541 35.8865 35.3603 34.6721 33.826 32.826 38.0123 38.0123 38.099 38.2722 38.5317 38.8762 39.3034 39.8076 40.3781 40.9938 41.6169 42.1848 42.6078 42.8009 42.8425 42.8157 42.7767 42.7571 42.7718 42.8257 42.9186 43.047 43.2056 43.3877 43.5848 43.7867 43.9811 44.1535 44.2888 44.3724 44.3928 44.3426 44.2202 44.029 43.7753 43.4676 43.1146 42.7244 42.3046 41.8617 41.4013 40.9287 40.4485 39.9655 39.4844 39.0105 38.5495 38.1077 37.6918 37.3088 36.9652 36.667 36.418 36.2202 36.0726 35.9713 35.9104 35.8824 35.879 35.8919 35.9132 35.9361 35.9547 35.9641 35.9602 35.9399 35.9 35.8376 35.7494 35.6311 35.4773 35.281 35.0331 34.723 34.3388 33.8686 33.3017 32.6304 31.8505 30.9607 29.9607 36.6507 36.6507 36.7269 36.8782 37.1023 37.3953 37.7509 38.16 38.6092 39.0802 39.5486 39.9854 40.362 40.6613 40.8926 41.0771 41.2362 41.3871 41.5411 41.7049 41.8812 42.0701 42.2692 42.4746 42.6808 42.8814 43.0684 43.2335 43.3683 43.465 43.5173 43.5211 43.4749 43.3794 43.2373 43.0528 42.8306 42.5759 42.2937 41.9889 41.6661 41.3297 40.9838 40.6326 40.2802 39.931 39.5892 39.2594 38.9461 38.6538 38.3863 38.147 37.9376 37.7588 37.6089 37.4848 37.3814 37.2923 37.2106 37.1288 37.0398 36.9371 36.8148 36.668 36.4926 36.285 36.0424 35.7622 35.4421 35.0798 34.6729 34.2187 33.7144 33.1569 32.543 31.8698 31.1343 30.3346 29.4688 28.5362 27.5362 34.9842 34.9842 35.0543 35.193 35.3977 35.6638 35.9847 36.3517 36.7536 37.1768 37.6064 38.027 38.4253 38.7934 39.1302 39.4399 39.729 40.0043 40.2712 40.5338 40.7939 41.0521 41.3075 41.5578 41.8 42.03 42.2432 42.4349 42.6003 42.735 42.8357 42.8999 42.9266 42.9159 42.8692 42.7885 42.6768 42.5372 42.3732 42.1881 41.9854 41.7684 41.5403 41.3044 41.0638 40.8215 40.5808 40.3448 40.1166 39.8992 39.6952 39.5069 39.3355 39.1812 39.0424 38.9154 38.7947 38.6731 38.5424 38.3944 38.2213 38.0162 37.7729 37.4866 37.1534 36.7703 36.3351 35.8465 35.3038 34.7071 34.0575 33.357 32.6085 31.8162 30.9849 30.1195 29.2244 28.3025 27.3548 26.3812 25.3812 33.0376 33.0376 33.1068 33.2442 33.4475 33.7127 34.0342 34.4039 34.8123 35.2483 35.7003 36.1573 36.6098 37.0507 37.4761 37.8848 38.2772 38.6548 39.0193 39.3721 39.7142 40.0456 40.3659 40.6739 40.9679 41.2455 41.5042 41.7415 41.9547 42.1415 42.3 42.4289 42.5278 42.5968 42.6365 42.6485 42.6344 42.5964 42.5368 42.4578 42.3619 42.2513 42.1284 41.9952 41.8537 41.7059 41.5538 41.3992 41.2441 41.0908 40.9415 40.7988 40.6651 40.5417 40.4283 40.321 40.2119 40.0899 39.9432 39.7604 39.5312 39.2476 38.9032 38.493 38.014 37.4638 36.8416 36.147 35.3811 34.5461 33.6459 32.6868 31.678 30.6317 29.5629 28.488 27.4218 26.3736 25.3446 24.3316 23.3316 30.814 30.814 30.8866 31.0319 31.2494 31.537 31.8903 32.3016 32.7606 33.2556 33.7745 34.306 34.8404 35.37 35.8893 36.3948 36.8845 37.3576 37.8139 38.2536 38.6769 39.0836 39.4737 39.8464 40.201 40.5363 40.8513 41.1445 41.4147 41.661 41.8823 42.0783 42.2489 42.3943 42.5152 42.6126 42.6878 42.7423 42.7776 42.7953 42.7969 42.7839 42.7575 42.7189 42.6688 42.6078 42.5365 42.4553 42.3647 42.266 42.1616 42.0552 41.953 41.8623 41.7897 41.7342 41.6803 41.6058 41.4889 41.3113 41.0591 40.7227 40.2959 39.7751 39.1587 38.446 37.6372 36.7331 35.7351 34.6457 33.4698 32.2158 30.8976 29.537 28.1652 26.8217 25.5475 24.3679 23.2703 22.23 21.23 28.3 28.3 28.3758 28.5309 28.7705 29.0988 29.5145 30.0083 30.565 31.1672 31.7981 32.443 33.09 33.7304 34.3578 34.9679 35.5582 36.1275 36.6751 37.2011 37.7055 38.1886 38.6506 39.0914 39.5109 39.9089 40.2852 40.6393 40.971 41.2799 41.566 41.8295 42.0705 42.2897 42.4877 42.6656 42.8243 42.9649 43.0888 43.1969 43.2904 43.3698 43.4358 43.4884 43.5272 43.5513 43.5591 43.5486 43.5177 43.4646 43.389 43.2951 43.1945 43.111 43.0821 43.1414 43.2313 43.2913 43.2772 43.1603 42.9238 42.5594 42.0646 41.44 40.6884 39.8123 38.8141 37.6948 36.4542 35.0915 33.6064 32.0014 30.2867 28.4872 26.6541 24.8782 23.295 22.034 20.967 19.967 18.967 25.4827 25.4827 25.5479 25.6915 25.9371 26.3111 26.8265 27.4634 28.1874 28.9642 29.7656 30.5711 31.3666 32.1431 32.8951 33.62 34.3163 34.9838 35.623 36.2346 36.8194 37.3783 37.9121 38.4213 38.9068 39.3687 39.8077 40.224 40.618 40.99 41.3406 41.6702 41.9797 42.2697 42.5411 42.7951 43.0327 43.2549 43.4629 43.6575 43.8397 44.0097 44.1677 44.3131 44.4445 44.5596 44.6546 44.7239 44.7599 44.7525 44.6901 44.5619 44.3673 44.1412 44.0217 44.4264 44.9013 45.2734 45.4769 45.4877 45.3001 44.9181 44.3519 43.6136 42.7154 41.6673 40.4755 39.1416 37.6619 36.0272 34.2221 32.2258 30.0148 27.5719 24.9137 22.1646 19.7534 18.924 18.3954 17.7044 16.7044 22.4047 22.4047 22.4064 22.4438 22.5903 22.9575 23.6525 24.57 25.5988 26.6626 27.717 28.7393 29.7191 30.6532 31.5416 32.3862 33.1893 33.9536 34.6815 35.3753 36.037 36.6685 37.2714 37.8469 38.3963 38.9206 39.4209 39.898 40.3527 40.786 41.1988 41.5919 41.9665 42.3237 42.6645 42.9903 43.3024 43.6019 43.8902 44.1683 44.4373 44.6978 44.95 45.1936 45.4273 45.6485 45.8528 46.0325 46.1753 46.2608 46.2543 46.0944 45.6663 44.7448 42.8641 45.431 46.9826 47.9298 48.4474 48.6091 48.4534 48.0142 47.3272 46.4267 45.3424 44.0971 42.7051 41.1712 39.49 37.6446 35.6027 33.3093 30.6703 27.5181 23.5372 18.0989 9.88502 14.6107 16.4732 16.6779 15.6779 19.3202 19.3202 19.1216 18.7601 18.3604 18.2932 19.588 21.2315 22.8704 24.3983 25.7971 27.0771 28.2548 29.3459 30.3635 31.3181 32.2178 33.0688 33.8763 34.6441 35.3756 36.0735 36.7399 37.3768 37.986 38.5689 39.1269 39.6613 40.1733 40.6642 41.1353 41.5879 42.0232 42.4428 42.8481 43.2407 43.6221 43.994 44.358 44.7158 45.0689 45.4188 45.7667 46.1136 46.4599 46.8054 47.1491 47.4886 47.8199 48.1371 48.4325 48.6992 48.9388 49.1853 49.5707 50.497 51.4813 52.305 52.841 53.0003 52.7406 52.1016 51.1562 49.9753 48.6135 47.1138 45.5023 43.7898 41.9751 40.0477 37.9892 35.7751 33.3784 30.779 27.9906 25.1356 22.6415 21.7507 21.1816 20.4705 19.4705 17.0302 17.0302 16.488 15.2294 12.8009 8.18071 14.1284 17.9118 20.5857 22.65 24.3528 25.8244 27.1367 28.3324 29.4377 30.4698 31.4406 32.3585 33.2295 34.0584 34.8489 35.604 36.3263 37.018 37.6809 38.3168 38.9273 39.5139 40.0783 40.6218 41.146 41.6526 42.143 42.6191 43.0827 43.5356 43.9798 44.4175 44.8508 45.282 45.7135 46.1479 46.5877 47.0359 47.4954 47.9696 48.4622 48.9775 49.5211 50.1004 50.7258 51.4124 52.1833 53.0707 54.1135 55.3312 56.6222 57.8311 58.7415 59.0672 58.5451 57.4143 55.9276 54.2471 52.4359 50.578 48.7035 46.8169 44.9114 42.9753 40.9977 38.9713 36.8978 34.7955 32.7103 30.7292 28.9845 27.6039 26.4579 25.4186 24.4186 16.9091 16.9091 16.7201 16.3781 16.008 15.9807 17.3259 19.0302 20.7397 22.3473 23.8339 25.2082 26.4855 27.6802 28.8043 29.867 30.8755 31.8354 32.7511 33.6262 34.4636 35.266 36.0355 36.7741 37.4838 38.1662 38.823 39.4559 40.0665 40.6565 41.2275 41.7815 42.3202 42.8457 43.3599 43.8652 44.3639 44.8585 45.3519 45.8468 46.3467 46.8549 47.3755 47.9129 48.4724 49.0603 49.684 50.3531 51.0797 51.8796 52.7736 53.7891 54.9614 56.3344 57.9569 59.872 62.0912 64.5516 66.9807 68.5252 66.7845 64.1507 61.4741 59.042 56.4452 54.1085 51.9528 49.9204 47.9692 46.0694 44.2015 42.3557 40.5324 38.7437 37.0137 35.3769 33.8709 32.519 31.3071 30.2098 29.2098 17.5439 17.5439 17.5641 17.6394 17.8439 18.2906 19.0869 20.128 21.3014 22.5289 23.7637 24.98 26.1645 27.3108 28.4165 29.4809 30.5048 31.4891 32.4351 33.3445 34.2187 35.0593 35.868 36.6462 37.3957 38.1179 38.8144 39.487 40.1372 40.7668 41.3776 41.9715 42.5505 43.1169 43.673 44.2211 44.7641 45.3049 45.8464 46.3923 46.9462 47.5125 48.0957 48.7015 49.3362 50.0074 50.7245 51.4988 52.3452 53.2824 54.3355 55.5381 56.9371 58.6002 60.6303 63.1959 66.5953 71.3979 78.7577 91.1242 78.5963 71.0584 66.0422 62.3667 59.4143 56.9147 54.7089 52.6988 50.8215 49.0362 47.317 45.6497 44.0289 42.4574 40.9439 39.5011 38.1415 36.8736 35.6981 34.6119 33.6119 18.0977 18.0977 18.188 18.3837 18.7115 19.2014 19.8694 20.6963 21.6464 22.6813 23.7678 24.8793 25.9961 27.104 28.1933 29.2574 30.2923 31.2956 32.2661 33.2034 34.1081 34.9806 35.8221 36.6336 37.4165 38.1721 38.9019 39.6074 40.2903 40.9522 41.5951 42.2208 42.8316 43.4296 44.0175 44.5978 45.1735 45.7477 46.3238 46.9055 47.4967 48.1019 48.726 49.3745 50.0539 50.7713 51.5355 52.3566 53.247 54.2218 55.2991 56.5017 57.8569 59.3976 61.1614 63.1849 65.4866 68.0151 70.5081 72.119 70.4476 67.8797 65.2476 62.7988 60.572 58.5456 56.6825 54.9462 53.306 51.738 50.2253 48.7572 47.3286 45.939 44.5916 43.2919 42.0458 40.8583 39.7322 38.669 37.669 18.2901 18.2901 18.3904 18.5993 18.931 19.4002 20.0156 20.7723 21.6518 22.6277 23.6716 24.7573 25.8631 26.9718 28.0707 29.151 30.2064 31.2332 32.2293 33.1935 34.1257 35.0263 35.8959 36.7356 37.5464 38.3296 39.0865 39.8186 40.5272 41.2141 41.8811 42.5301 43.1633 43.7831 44.392 44.993 45.5889 46.1831 46.779 47.3804 47.9912 48.6156 49.2584 49.9244 50.6191 51.3483 52.1187 52.9372 53.8117 54.7506 55.7622 56.8547 58.0343 59.3029 60.6534 62.0612 63.4706 64.7742 65.7874 66.2425 65.885 64.9582 63.7195 62.3431 60.9279 59.5231 58.149 56.8095 55.5014 54.2187 52.9553 51.7069 50.472 49.2515 48.0487 46.8684 45.716 44.5968 43.515 42.4733 41.4733 18.0814 18.0814 18.1585 18.324 18.5998 19.0147 19.5966 20.3568 21.2718 22.3022 23.4079 24.5552 25.7183 26.8785 28.0231 29.1436 30.2349 31.2941 32.3198 33.3116 34.2699 35.1956 36.0896 36.9529 37.7868 38.5923 39.3707 40.1232 40.851 41.5557 42.2389 42.9025 43.5487 44.1799 44.7987 45.4081 46.0113 46.6115 47.2124 47.8176 48.4309 49.0563 49.6978 50.3596 51.0459 51.761 52.509 53.2939 54.1193 54.9881 55.9017 56.8591 57.8556 58.881 59.9163 60.9308 61.8782 62.6942 63.2998 63.6162 63.5993 63.2846 62.7421 62.0426 61.2418 60.3786 59.4764 58.5472 57.5957 56.622 55.6247 54.603 53.5579 52.4934 51.4157 50.3329 49.2536 48.186 47.1369 46.1111 45.1111 17.5647 17.5647 17.5726 17.6074 17.712 17.9613 18.4643 19.3225 20.4303 21.6752 22.9779 24.2901 25.5849 26.8477 28.0715 29.2532 30.3921 31.4891 32.5456 33.5636 34.545 35.4918 36.4057 37.2882 38.1405 38.9637 39.7587 40.5262 41.2674 41.9832 42.6751 43.3448 43.9943 44.6261 45.2431 45.8484 46.4453 47.0374 47.6285 48.2222 48.8223 49.4324 50.0561 50.6969 51.3579 52.0419 52.7515 53.4884 54.2536 55.0468 55.8659 56.7067 57.5617 58.4191 59.2624 60.0693 60.8113 61.4557 61.9689 62.3232 62.5051 62.5216 62.3933 62.1466 61.8059 61.3902 60.9114 60.3745 59.7787 59.1197 58.392 57.5923 56.7218 55.7879 54.8033 53.7835 52.7446 51.7013 50.6655 49.6455 48.6455 17.0161 17.0161 16.8794 16.6119 16.245 15.8936 15.9109 17.2895 19.0409 20.817 22.5093 24.0951 25.5793 26.9733 28.2882 29.5336 30.7172 31.8459 32.9257 33.9617 34.9584 35.9194 36.8474 37.7441 38.6108 39.448 40.2561 41.035 41.785 42.5065 43.2002 43.8675 44.5105 45.1317 45.7344 46.3219 46.8984 47.4677 48.034 48.6013 49.1735 49.754 50.3463 50.9533 51.5774 52.2208 52.8847 53.5698 54.2759 55.0014 55.7437 56.4979 57.2576 58.0137 58.7547 59.4669 60.1347 60.7419 61.2738 61.7193 62.0732 62.3372 62.5185 62.6265 62.6699 62.6542 62.5789 62.4371 62.2146 61.892 61.4476 60.8645 60.139 59.2855 58.3316 57.3103 56.253 55.1865 54.131 53.1 52.1 17.0145 17.0145 16.709 16.0139 14.7161 12.351 7.9123 13.7649 17.5531 20.2939 22.4666 24.3066 25.9346 27.4149 28.7833 30.061 31.2621 32.3985 33.4805 34.517 35.5148 36.4794 37.4139 38.3202 39.1988 40.0491 40.8699 41.6597 42.4169 43.1407 43.8307 44.4878 45.1138 45.7118 46.2857 46.8401 47.3799 47.9101 48.4356 48.9612 49.491 50.0288 50.5779 51.141 51.7203 52.3173 52.933 53.5674 54.2201 54.8895 55.5732 56.2675 56.9679 57.6684 58.3623 59.0422 59.7003 60.3297 60.9245 61.4816 62.0006 62.484 62.9368 63.3644 63.7709 64.1562 64.5127 64.8222 65.0516 65.1512 65.0575 64.7069 64.0683 63.1843 62.13 60.9808 59.7983 58.6276 57.4989 56.4303 55.4303 18.2351 18.2351 18.0969 17.8269 17.4567 17.1023 17.1179 18.4978 20.2552 22.0433 23.7546 25.3661 26.8804 28.3042 29.6416 30.8943 32.066 33.1688 34.2178 35.2264 36.2047 37.1593 38.0932 39.0073 39.9 40.7682 41.6079 42.4143 43.1829 43.9099 44.5931 45.2321 45.8291 46.3883 46.9152 47.4166 47.8996 48.371 48.8373 49.3041 49.7764 50.2583 50.7533 51.2639 51.7922 52.3393 52.9059 53.4922 54.0975 54.7207 55.36 56.0132 56.6774 57.3495 58.0261 58.7042 59.3812 60.0552 60.7264 61.3966 62.07 62.7534 63.4556 64.1868 64.9568 65.773 66.635 67.5277 68.4075 69.1837 69.6946 69.7016 68.9791 67.7644 66.3082 64.7843 63.2963 61.9007 60.6262 59.4864 58.4864 20.0082 20.0082 20.0124 20.04 20.1347 20.3731 20.8667 21.7207 22.8343 24.0997 25.4418 26.8145 28.1883 29.5391 30.8389 32.0518 33.1451 34.1543 35.1165 36.0569 36.9898 37.9213 38.8523 39.78 40.6989 41.6016 42.4787 43.3201 44.1152 44.8546 45.5318 46.1447 46.6961 47.1934 47.6466 48.067 48.4657 48.8527 49.2367 49.625 50.0232 50.4358 50.8661 51.3165 51.7885 52.2831 52.8006 53.3408 53.9034 54.4873 55.0915 55.7146 56.3553 57.0122 57.6843 58.3711 59.0733 59.7925 60.5323 61.2985 62.0996 62.9477 63.8587 64.8534 65.9584 67.2062 68.635 70.2843 72.178 74.2771 76.3477 77.6141 75.8588 73.3106 70.7571 68.4444 66.4248 64.6893 63.215 61.983 60.983 21.7646 21.7646 21.8343 21.9848 22.2378 22.6235 23.1732 23.9055 24.8065 25.8491 27.0066 28.2583 29.5884 30.9778 32.3838 33.6875 34.5608 35.3278 36.102 36.9178 37.7806 38.6855 39.6245 40.5875 41.5629 42.5369 43.4929 44.4112 45.2701 46.0481 46.7281 47.303 47.7796 48.1747 48.5093 48.8044 49.0784 49.3462 49.6193 49.9061 50.2125 50.5425 50.8987 51.2825 51.6946 52.1352 52.604 53.1004 53.6237 54.173 54.7473 55.346 55.9683 56.614 57.2832 57.977 58.6972 59.4474 60.2327 61.0605 61.9414 62.8901 63.9267 65.0794 66.3887 67.915 69.7535 72.0631 75.1271 79.4842 86.2174 97.6138 85.9096 78.8783 74.243 70.9314 68.4176 66.4325 64.8348 63.5516 62.5516 23.2423 23.2423 23.3331 23.5195 23.8105 24.2172 24.75 25.4151 26.2124 27.139 28.1946 29.3888 30.7509 32.3503 34.3383 37.0445 36.4016 36.4722 36.9215 37.5911 38.4024 39.3137 40.3005 41.3454 42.4326 43.5445 44.6575 45.7397 46.7487 47.6337 48.3445 48.8544 49.1893 49.398 49.5301 49.6262 49.7157 49.8185 49.9471 50.1087 50.3073 50.5446 50.8207 51.1351 51.4868 51.8745 52.2969 52.7525 53.24 53.7582 54.306 54.8828 55.4879 56.1215 56.784 57.4767 58.2016 58.9621 59.7628 60.61 61.5123 62.4809 63.5302 64.6789 65.9508 67.3754 68.9878 70.8238 72.9043 75.1867 77.4343 78.8684 77.2688 74.8621 72.4336 70.2277 68.2954 66.6263 65.1968 63.9873 62.9873 24.3567 24.3567 24.4492 24.636 24.9205 25.3065 25.7975 26.3957 27.1012 27.9127 28.8287 29.8471 30.9644 32.1685 33.4203 34.6025 35.3881 36.1022 36.8597 37.6973 38.6241 39.6403 40.7442 41.9335 43.204 44.5474 45.9454 47.3609 48.7239 49.9157 50.7641 51.1063 51.1038 50.9276 50.6951 50.4742 50.3 50.1878 50.1425 50.1635 50.2478 50.3911 50.5894 50.8386 51.135 51.4754 51.8569 52.277 52.7335 53.2247 53.7492 54.3058 54.8